[Molden Format]
[Molpro variables]
_NUMVAR=  956.0000000000000    
_AVOGAD= 0.6022136736000000E+24
_BOLTZ= 0.1380658000000000E-22
_CLIGHT=  29979245800.00000    
_EV= 0.3674932379085202E-01
_ENULL= 0.8854187817000000E-11
_KJOULE= 0.3808798324128737E-03
_KJOULE/MOL= 0.3808798324128737E-03
_CM= 0.4556335267302901E-05
_CM-1= 0.4556335267302901E-05
_DEB2SI= 0.3335641000000000E-29
_AMU2AU=  1822.888390000000    
_KCAL= 0.1593601117815568E-02
_KCAL/MOL= 0.1593601117815568E-02
_KELVIN= 0.3166811411060229E-05
_JOULE= 0.4359748200000000E-17
_HERTZ= 0.1519829846004524E-15
_HZ= 0.1519829846004524E-15
_JPCAL=  4.184000000000000    
_PLANCK= 0.6626075540000000E-33
_TOA= 0.5291772109200000    
_TOANG= 0.5291772109200000    
_TORAD= 0.1745329251994330E-01
_TOCM=  219474.6306700000    
_TODEBYE=  2.541580000000000    
_TOE= 0.4803242000000000E-09
_TOEV=  27.21138505000000    
_TOHERTZ=  6579683920729000.    
_TOHZ=  6579683920729000.    
_TOK=  315775.0400000000    
_TOKCAL=  627.5096000000000    
_TOKELVIN=  315775.0400000000    
_TOKJ=  2625.500000000000    
_TOKJOULE=  2625.500000000000    
_TOKG= 0.1660565586000000E-26
_ANG=  1.889726124565062    
_ANGSTROM=  1.889726124565062    
_RPAREF=  0.000000000000000    
_RPADISS=  0.000000000000000    
_IGNORE_UNDEF=  2.000000000000000    
_STRICTCHECK=  0.000000000000000    
!SEWARD=  0.000000000000000    
!MULTI=  0.000000000000000    
_SEW_ONEEL=  0.000000000000000    
_CPPDONE=FALSE
_DKROLL_DONE=  0.000000000000000    
_FNUC_DONE=  0.000000000000000    
_FOCKDONE=TRUE
_GRADONE=FALSE
_HESSDONE=FALSE
_INTDONE=TRUE
_SCFDONE=TRUE
_MODUL_BLOCK=FALSE
_MODUL_CUDA=FALSE
_MODUL_SLATER=FALSE
_MODUL_MRCC=FALSE
_MODUL_NBO6=FALSE
_MODUL_NECI=FALSE
_MODUL_AIMS=FALSE
_MODUL_GECCO=FALSE
_ISWINDOWS=FALSE
_MRCC_EXEC=
_FITC_AO_SAVED=FALSE
_FITC_MO_SAVED=FALSE
_SHARED_FS=TRUE
_LSTYP=SEWARD
_INTYP=INTS
_GEOMTYP=ZMAT
_GRADTYP=ALASKA
_DIRECT=FALSE
_DKHO= -1.000000000000000    
_FNUC=  0.000000000000000    
_SYNCM=  0.000000000000000    
_BASIS=CC-PVDZ
_ZCENTRE=MASS
_ZUNIT=ANG
_ZORIENT=  0.000000000000000    
_NELEC=  18.00000000000000    
!SPIN=  0.000000000000000    
_QSDSTEP=  0.000000000000000    
_QSDIRC=  0.000000000000000    
_PROGRAM=CASSCF
_CPUSTEP= 0.5000000000000000    
_SYSSTEP= 0.1000000000000001E-01
_WALLSTEP= 0.5000000000000000    
!DFSCF=  0.000000000000000    
!SCSGRD=  0.000000000000000    
_CPUTOT= 0.7000000000000001    
_DFTEXFAC=  1.000000000000000    
_DMX=  0.000000000000000    
_DMY=  0.000000000000000    
_DMZ=-0.4193035779499119    
_DMX_SCF=  0.000000000000000    
_DMY_SCF=  0.000000000000000    
_DMZ_SCF=-0.5130591526394463    
_HOMO=  2.200000000000000    
_EHOMO=-0.3800680059047297    
_LUMO=  6.100000000000000    
_ELUMO= 0.1605828668750528    
_ENERGY= -398.7104509515880    
_ENERGY_METHOD=CASSCF
_ENERGY_BASIS=cc-pVDZ
_GEOMETRY_METHOD=
_GEOMETRY_BASIS=
_ENUC=  12.91344277363007    
_GRADEXFAC=  9999.000000000000    
_GRADMETHOD=TRUE
_NMRMETHOD=  0.000000000000000    
_NMRMAGNET=  0.000000000000000    
!GRID_FREEZE= -1.000000000000000    
_ITERATIONS=  4.000000000000000    
_LASTNELEC=  8.000000000000000    
_LASTSPIN=  0.000000000000000    
_LASTSYM=  1.000000000000000    
_MPP_PROG=  0.000000000000000    
_MSNSTATES=  0.000000000000000    
_RS2PHASE=  0.000000000000000    
_IPROC_MPP=  0.000000000000000    
_IPROC_MPPX=  0.000000000000000    
_NPROC_MPP=  1.000000000000000    
_NPROC_MPPX=  1.000000000000000    
_NPROC_SMP=  1.000000000000000    
_NUMSTEP=  0.000000000000000    
_ORBITAL=  2141.200000000000    
_PI=  3.141592653589793    
_POLXX=  9.498055891367985    
_POLXY=  0.000000000000000    
_POLXZ=  0.000000000000000    
_POLYY=  18.41413293487581    
_POLYZ=  0.000000000000000    
_POLZZ=  16.22477830489958    
!MCACT=  3.000000000000000    
!MCCLOSED=  3.000000000000000    
!MCFREEZE=  0.000000000000000    
!MCMS2=  0.000000000000000    
!MCNEL=  8.000000000000000    
!MCNSTSYM=  3.000000000000000    
!MCSTATE=  1.000000000000000    
!MCSYM=  1.000000000000000    
!MCWEIGHT= 0.3333333333333333    
_SEIG_MIN= 0.1505451662307303E-01
_SEWPROP=TRUE
_STATUS=  1.000000000000000    
_SYSTOT= 0.8000000000000002E-01
_VERSION=  2020001.000000000    
_WALLTOT= 0.7600000000000000    
_DATE=13-Nov-24
_LASTORB=MCSCF
_OUTPUT=
_PGROUP=C2v
_TIME=16:40:05
_LIBMOL=/usr/local/molpro/molpro_2020.1/lib/
_VIGRDC=  0.000000000000000    
!VIBCNT=  0.000000000000000    
!RGHFCNT=  0.000000000000000    
!SURFREC=  0.000000000000000    
!XSURFREC=  0.000000000000000    
!XPOLYREC=  0.000000000000000    
!ROTREC=  0.000000000000000    
!POLYREC=  0.000000000000000    
!DIPREC=  0.000000000000000    
!DIP4DREC=  0.000000000000000    
!DIPROT=  0.000000000000000    
!DIP4DROT=  0.000000000000000    
!PTREC=  0.000000000000000    
!PT4DREC=  0.000000000000000    
!VSCFREC=  0.000000000000000    
!VCIREC=  0.000000000000000    
!PVCIREC=  0.000000000000000    
!VMP2REC=  0.000000000000000    
!VMCSCFREC=  0.000000000000000    
!VMRCIREC=  0.000000000000000    
!VIBSTATEREC=  0.000000000000000    
!VIBSTATECNT=  0.000000000000000    
!VIBINFO=  0.000000000000000    
!GAREC=  0.000000000000000    
!SCFORB=  21002.00000000000    
!MCORB=  21412.00000000000    
!SCORE=  1.000000000000000    
!NEWMOL= -1.000000000000000    
!NEWSYM= -1.000000000000000    
_SLFILES=slscratch
_NGSSTO=  9.000000000000000    
_SIN=SIN
_COS=COS
_TAN=TAN
_ACOS=ACOS
_ASIN=ASIN
_ATAN=ATAN
_COSH=COSH
_SINH=SINH
_TANH=TANH
_ABS=ABS
_MOD=MOD
_ERF=ERF
_REFC=REFC
_ERFC=ERFC
_HYPOT=HYPOT
_J0=J0
_J1=J1
_JN=JN
_GAMMA=GAMMA
_LGAMMA=LGAMMA
_Y0=Y0
_Y1=Y1
_YN=YN
_EXP=EXP
_LOG=LOG
_LOG10=LOG10
_SQRT=SQRT
_INT=INT
_NINT=NINT
_MAX=MAX
_MIN=MIN
_COSMO=  0.000000000000000    
_COSMOIT=  0.000000000000000    
_COSMOES=  0.000000000000000    
_COSMOEDS=  0.000000000000000    
_COSMOEC=  0.000000000000000    
_COSMOEDCORR=  0.000000000000000    
_FEPSI=  1.000000000000000    
_SL_IsMM=  0.000000000000000    
_SL_NSYM=  4.000000000000000    
_SL_System_BitSw=  0.000000000000000    
_SL_Unique_atoms=  0.000000000000000    
_SL_GRAD=  0.000000000000000    
_SL_MAXUPD_Hess=  5.000000000000000    
_SL_N_PRINT_COD=  5.000000000000000    
_SL_PRINT_CODES=  0.000000000000000    
_SL_BasType=  0.000000000000000    
_SL_Energy_Pred=  0.000000000000000    
_SL_New_Coords=  0.000000000000000    
_SL_Total_Nuclea=  0.000000000000000    
_SL_Highest_Mltp=  0.000000000000000    
_SL_Ref_Geom=  0.000000000000000    
_SL_Symmetry_ope=  1.000000000000000    
_SL_agrad=  0.000000000000000    
_SL_GrdMax=  0.000000000000000    
_SL_GrdNorm=  0.000000000000000    
_SL_GrdRMS=  0.000000000000000    
_SL_Hss_Q=  0.000000000000000    
_SL_Hss_X=  0.000000000000000    
_SL_BMxOld=  0.000000000000000    
_SL_KtB=  0.000000000000000    
_SL_TROld=  0.000000000000000    
_SL_No_of_Intern=  0.000000000000000    
_SL_Hess=  0.000000000000000    
_SL_K=  0.000000000000000    
!LATTICE= -1.000000000000000    
!NEWLATTICE=  0.000000000000000    
!LATGRAD_VAR=FALSE
!SEW_LATTICE=  1.000000000000000    
!AIC_ONEEL=  0.000000000000000    
!LOCAL=  0.000000000000000    
!SAVEDOM= -1.000000000000000    
!RESTDOM= -1.000000000000000    
!SAVEDOM_HF= -1.000000000000000    
!RESTDOM_HF= -1.000000000000000    
!HESSREC=  0.000000000000000    
!FREQREC=  0.000000000000000    
!NMODREC=  0.000000000000000    
!GTASKS=  0.000000000000000    
!HTASKS=  0.000000000000000    
!SAVEDOM_EOM= -1.000000000000000    
!RESTDOM_EOM= -1.000000000000000    
!GRADSTATE= -1.000000000000000    
!THRCHG= 0.1000000000000000    
!DEBUG= -1.000000000000000    
!CFIT_CPHF=  0.000000000000000    
!RDOMAUX_CPHF=  3.000000000000000    
!THRAO_CPHF= 0.1000000000000000E-09
!THRMO_CPHF= 0.1000000000000000E-08
!THROV_CPHF= 0.1000000000000000E-11
!THRSW_CPHF= 0.1000000000000000E-09
!THRPROD_CPHF= 0.1000000000000000E-08
!THRAOPR_CPHF= 0.1000000000000000E-11
!CFIT_SCFGRD=  0.000000000000000    
!RDOMAUX_SCFGRD=  7.000000000000000    
!THRAO_SCFGRD= 0.1000000000000000E-09
!THRMO_SCFGRD= 0.1000000000000000E-08
!THROV_SCFGRD= 0.1000000000000000E-11
!THRSW_SCFGRD= 0.1000000000000000E-09
!THRPROD_SCFGRD= 0.1000000000000000E-08
!THRAOPR_SCFGRD= 0.1000000000000000E-11
!LOCFIT_SCF=  0.000000000000000    
!LOCFIT_MP2= -1.000000000000000    
_RIDOM=  0.000000000000000    
!CC2_METHOD=  0.000000000000000    
_BASIS2006=FALSE
_SVDDEL= -1.000000000000000    
_SVDDELA= -1.000000000000000    
_SVDDELP= -1.000000000000000    
_SVDDELF= -1.000000000000000    
_SVDDELS= -1.000000000000000    
_SVDDEL_ABS= -1.000000000000000    
_SVDDELA_ABS= -1.000000000000000    
_SVDDELP_ABS= -1.000000000000000    
_SVDDELF_ABS= -1.000000000000000    
_SVDDELS_ABS= -1.000000000000000    
_MAXBASIS=  0.000000000000000    
!OPT_CONICAL=  0.000000000000000    
!CLEARSP_JGRID=  0.000000000000000    
_GRDHYBR=  0.000000000000000    
_STATEGRAD=  1.000000000000000    
_4EXT_NDISKS=  1.000000000000000    
!EMBEDFLAG=  1.000000000000000    
!EMBED=FALSE
!EMBED_F12=FALSE
!EMBEDNUC=  0.000000000000000    
_EMBEDENERGY=  0.000000000000000    
!EMBED_DFC=FALSE
!NUM_VOIDS=  0.000000000000000    
_IBODY=  0.000000000000000    
_EMBE_CORR=  0.000000000000000    
!EMBED_PROJ=FALSE
!EMB_PROJ_ZMU=  1000000.000000000    
!CORRECTION_HF=  0.000000000000000    
!EMBED_AORB=  0.000000000000000    
!EMBED_NACORR=  0.000000000000000    
!EMBED_MP2=FALSE
!EMBED_TRUNC_PERTURBATION=FALSE
!EMBED_FROZEN=  0.000000000000000    
!EMBED_ACTIVE=  0.000000000000000    
_CHANGE_BASIS=FALSE
_RESTORE_BASIS=FALSE
_FIX_EMBED_GUESS=FALSE
_EMBED_SCF=FALSE
_HUZINAGA_T=FALSE
_HUZINAGA_F=FALSE
_HUZINAGA=FALSE
_HUZINAGA_CORRECT=FALSE
!FASTLATGRAD=  1.000000000000000    
!FASTVLAMBDA= -1.000000000000000    
!IFORCE= -1.000000000000000    
!USESYM= -1.000000000000000    
_SINDEX=  0.000000000000000    
_AVDOM_OSV=  0.000000000000000    
_AVDOM_PNO=  0.000000000000000    
_AVDOM_PAO=  0.000000000000000    
_AVDOM_LMO=  0.000000000000000    
_CC2OSV_FLAG=  0.000000000000000    
_EOMCCSD_CONV=FALSE
_TMADC2_FLAG=FALSE
_PROPADC2_FLAG=FALSE
_LEN_VirQ=  0.000000000000000    
_GRDCC2LR_FLAG=FALSE
_GRDADC2_FLAG=FALSE
_DMX_CC= -0.000000000000000    
_DMY_CC= -0.000000000000000    
_DMZ_CC= -1.015353776639471    
_DMX_NUC=  0.000000000000000    
_DMY_NUC=  0.000000000000000    
_DMZ_NUC= -1.613448165146000    
_RO_VGLOBAL=  0.000000000000000    
_OPT=FALSE
_FREQ=FALSE
_HESS=FALSE
_CMRCC_callName=EMPTY
_CMRCC_callCount=  0.000000000000000    
_GECCO_CIROOT=  1.000000000000000    
_SYM_CATION=  2.000000000000000    
GEOMTYP=XYZ
GX1=  0.000000000000000    
GY1=  0.000000000000000    
GZ1= 0.5399999999999998E-01
GX2=  0.000000000000000    
GY2=-0.9800000000000000    
GZ2=-0.8589000000000000    
GX3=  0.000000000000000    
GY3= 0.9800000000000000    
GZ3=-0.8589000000000000    
_TRDMX=-0.4806120972212660E-01
_TRDMY= -0.000000000000000    
_TRDMZ= -0.000000000000000    
[Atoms] Angs
S     1   16         0.0000000000        0.0000000000        0.0540000000
H     2    1         0.0000000000       -0.9800000000       -0.8589000000
H     3    1         0.0000000000        0.9800000000       -0.8589000000
[GTO]
   1 0
 s   12  1.00
  0.1108000000D+06  0.2476349789D-03
  0.1661000000D+05  0.1920259836D-02
  0.3781000000D+04  0.9961919151D-02
  0.1071000000D+04  0.4029749656D-01
  0.3498000000D+03  0.1286039890D+00
  0.1263000000D+03  0.3034799741D+00
  0.4926000000D+02  0.4214319641D+00
  0.2016000000D+02  0.2307809803D+00
  0.5720000000D+01  0.1789709847D-01
  0.2182000000D+01 -0.2975159746D-02
  0.4327000000D+00  0.8495219276D-03
  0.1570000000D+00 -0.3679359686D-03
 s   12  1.00
  0.1108000000D+06 -0.6870389403D-04
  0.1661000000D+05 -0.5276809541D-03
  0.3781000000D+04 -0.2796709757D-02
  0.1071000000D+04 -0.1126509902D-01
  0.3498000000D+03 -0.3888339662D-01
  0.1263000000D+03 -0.9950249135D-01
  0.4926000000D+02 -0.1997399826D+00
  0.2016000000D+02 -0.1233599893D+00
  0.5720000000D+01  0.5131939554D+00
  0.2182000000D+01  0.6071199472D+00
  0.4327000000D+00  0.3967529655D-01
  0.1570000000D+00 -0.9468639177D-02
 s   12  1.00
  0.1108000000D+06  0.1990770288D-04
  0.1661000000D+05  0.1534830222D-03
  0.3781000000D+04  0.8095031173D-03
  0.1071000000D+04  0.3289740477D-02
  0.3498000000D+03  0.1129670164D-01
  0.1263000000D+03  0.2963850429D-01
  0.4926000000D+02  0.5998510869D-01
  0.2016000000D+02  0.4132480599D-01
  0.5720000000D+01 -0.2074740301D+00
  0.2182000000D+01 -0.3928890569D+00
  0.4327000000D+00  0.6328400917D+00
  0.1570000000D+00  0.5569240807D+00
 s   12  1.00
  0.1108000000D+06  0.0000000000D+00
  0.1661000000D+05  0.0000000000D+00
  0.3781000000D+04  0.0000000000D+00
  0.1071000000D+04  0.0000000000D+00
  0.3498000000D+03  0.0000000000D+00
  0.1263000000D+03  0.0000000000D+00
  0.4926000000D+02  0.0000000000D+00
  0.2016000000D+02  0.0000000000D+00
  0.5720000000D+01  0.0000000000D+00
  0.2182000000D+01  0.0000000000D+00
  0.4327000000D+00  0.0000000000D+00
  0.1570000000D+00  0.1000000000D+01
 p    8  1.00
  0.3997000000D+03  0.4475409178D-02
  0.9419000000D+02  0.3417079372D-01
  0.2975000000D+02  0.1442499735D+00
  0.1077000000D+02  0.3539279350D+00
  0.4119000000D+01  0.4590849156D+00
  0.1625000000D+01  0.2063829621D+00
  0.4726000000D+00  0.1021409812D-01
  0.1407000000D+00 -0.6031218892D-04
 p    8  1.00
  0.3997000000D+03 -0.1162510528D-02
  0.9419000000D+02 -0.8656643933D-02
  0.2975000000D+02 -0.3908861776D-01
  0.1077000000D+02 -0.9346254246D-01
  0.4119000000D+01 -0.1479940672D+00
  0.1625000000D+01  0.3019041372D-01
  0.4726000000D+00  0.5615732551D+00
  0.1407000000D+00  0.5347762430D+00
 p    8  1.00
  0.3997000000D+03  0.0000000000D+00
  0.9419000000D+02  0.0000000000D+00
  0.2975000000D+02  0.0000000000D+00
  0.1077000000D+02  0.0000000000D+00
  0.4119000000D+01  0.0000000000D+00
  0.1625000000D+01  0.0000000000D+00
  0.4726000000D+00  0.0000000000D+00
  0.1407000000D+00  0.1000000000D+01
 d    1  1.00
  0.4790000000D+00  0.1000000000D+01
  
   2 0
 s    4  1.00
  0.1301000000D+02  0.1968498999D-01
  0.1962000000D+01  0.1379769298D+00
  0.4446000000D+00  0.4781477569D+00
  0.1220000000D+00  0.5012397451D+00
 s    4  1.00
  0.1301000000D+02  0.0000000000D+00
  0.1962000000D+01  0.0000000000D+00
  0.4446000000D+00  0.0000000000D+00
  0.1220000000D+00  0.1000000000D+01
 p    1  1.00
  0.7270000000D+00  0.1000000000D+01
  
   3 0
 s    4  1.00
  0.1301000000D+02  0.1968498999D-01
  0.1962000000D+01  0.1379769298D+00
  0.4446000000D+00  0.4781477569D+00
  0.1220000000D+00  0.5012397451D+00
 s    4  1.00
  0.1301000000D+02  0.0000000000D+00
  0.1962000000D+01  0.0000000000D+00
  0.4446000000D+00  0.0000000000D+00
  0.1220000000D+00  0.1000000000D+01
 p    1  1.00
  0.7270000000D+00  0.1000000000D+01


[MO]
 Sym=      1.1
 Ene=     -92.0099
 Spin= Alpha
 Occup=    2.000000
1 1.00001023548637
2 0.000089816431787
3 0.000454535304261
4 -0.000304847053000
5 0.0
6 0.0
7 -0.000059061078375
8 0.0
9 0.0
10 -0.000037546914774
11 0.0
12 0.0
13 0.000134454545848
14 -0.000016274422122
15 0.000013846621979
16 0.000002427800143
17 0.0
18 0.0
19 0.0
20 -0.000019520782674
21 0.000114182066556
22 0.0
23 -0.000037085202816
24 -0.000037930330864
25 -0.000019520782674
26 0.000114182066556
27 0.0
28 0.000037085202816
29 -0.000037930330864
 Sym=      2.1
 Ene=      -9.0128
 Spin= Alpha
 Occup=    2.000000
1 0.000249561151136
2 1.00189072725502
3 -0.002262656052555
4 -0.008021370161989
5 0.0
6 0.0
7 -0.006562108089830
8 0.0
9 0.0
10 -0.006893107908107
11 0.0
12 0.0
13 0.004354236296031
14 -0.000462477189571
15 0.000243938537912
16 0.000218538651660
17 0.0
18 0.0
19 0.0
20 -0.000769917441045
21 0.003311052979020
22 0.0
23 -0.000624119618267
24 -0.000696865886309
25 -0.000769917441045
26 0.003311052979020
27 0.0
28 0.000624119618267
29 -0.000696865886309
 Sym=      1.3
 Ene=      -6.6928
 Spin= Alpha
 Occup=    2.000000
1 0.0
2 0.0
3 0.0
4 0.0
5 0.0
6 0.99997338273110
7 0.0
8 0.0
9 0.002730217054680
10 0.0
11 0.0
12 -0.000985591681550
13 0.0
14 0.0
15 0.0
16 0.0
17 0.0
18 0.0
19 -0.000791729181928
20 -0.002082831502851
21 0.000704058812617
22 0.0
23 -0.000149176541604
24 -0.000193326832661
25 0.002082831502851
26 -0.000704058812617
27 0.0
28 -0.000149176541604
29 0.000193326832661
 Sym=      1.2
 Ene=      -6.6921
 Spin= Alpha
 Occup=    2.000000
1 0.0
2 0.0
3 0.0
4 0.0
5 1.00004524412591
6 0.0
7 0.0
8 0.000896999572428
9 0.0
10 0.0
11 -0.000471441606018
12 0.0
13 0.0
14 0.0
15 0.0
16 0.0
17 0.0
18 -0.000345001114127
19 0.0
20 0.0
21 0.0
22 -0.000010504457238
23 0.0
24 0.0
25 0.0
26 0.0
27 -0.000010504457238
28 0.0
29 0.0
 Sym=      3.1
 Ene=      -6.6915
 Spin= Alpha
 Occup=    2.000000
1 -0.000064631794151
2 0.005318579678517
3 -0.012853557676320
4 0.003221241982333
5 0.0
6 0.0
7 0.99980562595408
8 0.0
9 0.0
10 -0.001167092162162
11 0.0
12 0.0
13 -0.000382768312983
14 0.000204195160211
15 0.000193665779580
16 -0.000397860939791
17 0.0
18 0.0
19 0.0
20 -0.002983713676603
21 0.001435284415101
22 0.0
23 -0.000329618199432
24 -0.000395932313504
25 -0.002983713676603
26 0.001435284415101
27 0.0
28 0.000329618199432
29 -0.000395932313504
 Sym=      4.1
 Ene=      -0.9603
 Spin= Alpha
 Occup=    1.997146
1 0.000822510674931
2 0.012410993641375
3 0.97368727868396
4 -0.041586623415356
5 0.0
6 0.0
7 0.015528576933869
8 0.0
9 0.0
10 0.11872968971995
11 0.0
12 0.0
13 0.025498350750544
14 0.000326869667995
15 0.003362261412168
16 -0.003689131080163
17 0.0
18 0.0
19 0.0
20 0.16691451719545
21 -0.097209351327530
22 0.0
23 0.013998181248188
24 0.014444329101806
25 0.16691451719545
26 -0.097209351327530
27 0.0
28 -0.013998181248188
29 0.014444329101806
 Sym=      5.1
 Ene=      -0.5666
 Spin= Alpha
 Occup=    1.983440
1 -0.002633668513894
2 -0.007425704402822
3 0.042386083650304
4 0.18567418384974
5 0.0
6 0.0
7 -0.011918796733277
8 0.0
9 0.0
10 0.80186368481347
11 0.0
12 0.0
13 -0.092136260173662
14 0.037515182146624
15 -0.007988426841236
16 -0.029526755305388
17 0.0
18 0.0
19 0.0
20 -0.43016012855575
21 0.13105195026352
22 0.0
23 -0.021701535899377
24 -0.008354613533776
25 -0.43016012855575
26 0.13105195026352
27 0.0
28 0.021701535899377
29 -0.008354613533776
 Sym=      2.3
 Ene=      -0.6063
 Spin= Alpha
 Occup=    1.982402
1 0.0
2 0.0
3 0.0
4 0.0
5 0.0
6 -0.014522916751607
7 0.0
8 0.0
9 0.73697202653323
10 0.0
11 0.0
12 -0.14934434596902
13 0.0
14 0.0
15 0.0
16 0.0
17 0.0
18 0.0
19 -0.075638422286426
20 -0.50488191726978
21 0.13981921498045
22 0.0
23 -0.011495225406861
24 -0.019169157642040
25 0.50488191726978
26 -0.13981921498045
27 0.0
28 -0.011495225406861
29 0.019169157642040
 Sym=      2.2
 Ene=      -0.3024
 Spin= Alpha
 Occup=    1.332977
1 0.0
2 0.0
3 0.0
4 0.0
5 -0.002769257571172
6 0.0
7 0.0
8 0.97545259717328
9 0.0
10 0.0
11 0.019641170126531
12 0.0
13 0.0
14 0.0
15 0.0
16 0.0
17 0.0
18 -0.021506630501269
19 0.0
20 0.0
21 0.0
22 0.015797717473039
23 0.0
24 0.0
25 0.0
26 0.0
27 0.015797717473039
28 0.0
29 0.0
 Sym=      3.3
 Ene=       0.1216
 Spin= Alpha
 Occup=    0.357572
1 0.0
2 0.0
3 0.0
4 0.0
5 0.0
6 0.007161603098927
7 0.0
8 0.0
9 0.69198843881503
10 0.0
11 0.0
12 0.54142398409907
13 0.0
14 0.0
15 0.0
16 0.0
17 0.0
18 0.0
19 0.17319043477638
20 0.51479063297556
21 0.58913875636805
22 0.0
23 -0.000101943789342
24 -0.019955559194276
25 -0.51479063297556
26 -0.58913875636805
27 0.0
28 -0.000101943789342
29 0.019955559194276
 Sym=      6.1
 Ene=       0.1225
 Spin= Alpha
 Occup=    0.346463
1 0.008509438424278
2 0.044574416189081
3 -0.33947796422268
4 -0.99349916523982
5 0.0
6 0.0
7 0.012304118433393
8 0.0
9 0.0
10 0.56174512343541
11 0.0
12 0.0
13 0.45695140674012
14 -0.014723582036810
15 0.032692941517434
16 -0.017969359480624
17 0.0
18 0.0
19 0.0
20 0.34149220587973
21 0.81761269959652
22 0.0
23 -0.014454185765999
24 -0.002687315710095
25 0.34149220587973
26 0.81761269959652
27 0.0
28 0.014454185765999
29 -0.002687315710095
 Sym=      4.3
 Ene=       0.4462
 Spin= Alpha
 Occup=   -0.000000
1 0.0
2 0.0
3 0.0
4 0.0
5 0.0
6 0.068467860683242
7 0.0
8 0.0
9 0.60260329520380
10 0.0
11 0.0
12 -0.45850094118680
13 0.0
14 0.0
15 0.0
16 0.0
17 0.0
18 0.0
19 -0.36257583249325
20 -0.89315118190455
21 1.50450692820933
22 0.0
23 0.000009594361432
24 0.017461046086785
25 0.89315118190455
26 -1.50450692820933
27 0.0
28 0.000009594361432
29 -0.017461046086785
 Sym=      7.1
 Ene=       0.5327
 Spin= Alpha
 Occup=   -0.000000
1 -0.006339310604470
2 -0.041020663234400
3 0.021175309180214
4 -0.10362494333565
5 0.0
6 0.0
7 0.054853266243222
8 0.0
9 0.0
10 0.31948312418669
11 0.0
12 0.0
13 -0.65173414385056
14 0.47404519985550
15 -0.35347521663515
16 -0.12056998322035
17 0.0
18 0.0
19 0.0
20 -1.09044435559177
21 1.04852616688687
22 0.0
23 0.046937226627989
24 -0.013912667901936
25 -1.09044435559177
26 1.04852616688687
27 0.0
28 -0.046937226627989
29 -0.013912667901936
 Sym=      8.1
 Ene=       0.6580
 Spin= Alpha
 Occup=   -0.000000
1 -0.058598376192072
2 -0.43949965055833
3 -1.33852035127298
4 1.16391776247726
5 0.0
6 0.0
7 -0.18066608835263
8 0.0
9 0.0
10 -1.69452724022790
11 0.0
12 0.0
13 2.04872109843331
14 0.14756964069133
15 -0.26491300403367
16 0.11734336334234
17 0.0
18 0.0
19 0.0
20 -0.16427589139680
21 0.37699737610343
22 0.0
23 0.087696122446071
24 -0.009041632540390
25 -0.16427589139680
26 0.37699737610343
27 0.0
28 -0.087696122446071
29 -0.009041632540390
 Sym=      3.2
 Ene=       0.6625
 Spin= Alpha
 Occup=   -0.000000
1 0.0
2 0.0
3 0.0
4 0.0
5 -0.21553175720008
6 0.0
7 0.0
8 -2.01062607182844
9 0.0
10 0.0
11 2.26147867400269
12 0.0
13 0.0
14 0.0
15 0.0
16 0.0
17 0.0
18 0.075055629248893
19 0.0
20 0.0
21 0.0
22 -0.033929034693665
23 0.0
24 0.0
25 0.0
26 0.0
27 -0.033929034693665
28 0.0
29 0.0
 Sym=      9.1
 Ene=       0.7137
 Spin= Alpha
 Occup=   -0.000000
1 0.019918120282496
2 0.14749528647223
3 0.41079119916154
4 -0.43803473100648
5 0.0
6 0.0
7 0.037391877419547
8 0.0
9 0.0
10 0.43346529983938
11 0.0
12 0.0
13 -0.35424831097074
14 -0.25209817617735
15 -0.57618439848029
16 0.82828257465764
17 0.0
18 0.0
19 0.0
20 0.14843899568240
21 -0.13421847373833
22 0.0
23 0.097027920358538
24 -0.13212856246433
25 0.14843899568240
26 -0.13421847373833
27 0.0
28 -0.097027920358538
29 -0.13212856246433
 Sym=      1.4
 Ene=       0.7408
 Spin= Alpha
 Occup=   -0.000000
1 0.0
2 0.0
3 0.0
4 0.0
5 0.0
6 0.0
7 0.0
8 0.0
9 0.0
10 0.0
11 0.0
12 0.0
13 0.0
14 0.0
15 0.0
16 0.0
17 0.91186137836450
18 0.0
19 0.0
20 0.0
21 0.0
22 -0.14848231359509
23 0.0
24 0.0
25 0.0
26 0.0
27 0.14848231359509
28 0.0
29 0.0
 Sym=      4.2
 Ene=       0.7536
 Spin= Alpha
 Occup=   -0.000000
1 0.0
2 0.0
3 0.0
4 0.0
5 0.019411987596798
6 0.0
7 0.0
8 0.23115107810560
9 0.0
10 0.0
11 -0.16458128724843
12 0.0
13 0.0
14 0.0
15 0.0
16 0.0
17 0.0
18 0.92544181679554
19 0.0
20 0.0
21 0.0
22 -0.12955472971182
23 0.0
24 0.0
25 0.0
26 0.0
27 -0.12955472971182
28 0.0
29 0.0
 Sym=      5.3
 Ene=       0.7676
 Spin= Alpha
 Occup=   -0.000000
1 0.0
2 0.0
3 0.0
4 0.0
5 0.0
6 -0.21270951337929
7 0.0
8 0.0
9 -1.87876051505918
10 0.0
11 0.0
12 2.93823871401518
13 0.0
14 0.0
15 0.0
16 0.0
17 0.0
18 0.0
19 -0.31138197477414
20 -0.36007934101826
21 1.48570556096561
22 0.0
23 0.077513711036297
24 0.10812213926354
25 0.36007934101826
26 -1.48570556096561
27 0.0
28 0.077513711036297
29 -0.10812213926354
 Sym=     10.1
 Ene=       0.8357
 Spin= Alpha
 Occup=   -0.000000
1 -0.18098548699977
2 -1.31916850885393
3 -3.49583120277066
4 5.20693005684409
5 0.0
6 0.0
7 0.093269908139779
8 0.0
9 0.0
10 0.80953415501920
11 0.0
12 0.0
13 -1.61018628819968
14 0.18641124870397
15 -0.13675475267381
16 -0.049656496030157
17 0.0
18 0.0
19 0.0
20 0.42255560104456
21 -1.45185189052622
22 0.0
23 -0.11328074358923
24 -0.099452817085332
25 0.42255560104456
26 -1.45185189052622
27 0.0
28 0.11328074358923
29 -0.099452817085332
 Sym=     11.1
 Ene=       1.1352
 Spin= Alpha
 Occup=   -0.000000
1 0.11634536907792
2 0.84225015813841
3 2.06386611205598
4 -3.09629148668942
5 0.0
6 0.0
7 -0.048892260526693
8 0.0
9 0.0
10 -0.23527267752379
11 0.0
12 0.0
13 1.01390508765136
14 0.88321593646156
15 -0.62071305810082
16 -0.26250287836075
17 0.0
18 0.0
19 0.0
20 1.26330751949001
21 -0.37145925239852
22 0.0
23 -0.060525532983898
24 0.023244918184431
25 1.26330751949001
26 -0.37145925239852
27 0.0
28 0.060525532983898
29 0.023244918184431
 Sym=      6.3
 Ene=       1.2487
 Spin= Alpha
 Occup=   -0.000000
1 0.0
2 0.0
3 0.0
4 0.0
5 0.0
6 0.018360842521861
7 0.0
8 0.0
9 0.010999881225212
10 0.0
11 0.0
12 -0.28726757614739
13 0.0
14 0.0
15 0.0
16 0.0
17 0.0
18 0.0
19 0.97325776942482
20 -1.32837875655872
21 1.03349866573621
22 0.0
23 0.009746376074318
24 0.18425334753266
25 1.32837875655872
26 -1.03349866573621
27 0.0
28 0.009746376074318
29 -0.18425334753266
 Sym=      7.3
 Ene=       1.6003
 Spin= Alpha
 Occup=   -0.000000
1 0.0
2 0.0
3 0.0
4 0.0
5 0.0
6 0.029665800245048
7 0.0
8 0.0
9 0.081472775316445
10 0.0
11 0.0
12 -0.38135874108723
13 0.0
14 0.0
15 0.0
16 0.0
17 0.0
18 0.0
19 0.087715820820162
20 -0.32430711674466
21 0.22640688098870
22 0.0
23 0.58408213970727
24 -0.44307903510428
25 0.32430711674466
26 -0.22640688098870
27 0.0
28 0.58408213970727
29 0.44307903510428
 Sym=      2.4
 Ene=       1.6410
 Spin= Alpha
 Occup=   -0.000000
1 0.0
2 0.0
3 0.0
4 0.0
5 0.0
6 0.0
7 0.0
8 0.0
9 0.0
10 0.0
11 0.0
12 0.0
13 0.0
14 0.0
15 0.0
16 0.0
17 0.53671574597315
18 0.0
19 0.0
20 0.0
21 0.0
22 0.73592048975098
23 0.0
24 0.0
25 0.0
26 0.0
27 -0.73592048975098
28 0.0
29 0.0
 Sym=      5.2
 Ene=       1.7373
 Spin= Alpha
 Occup=   -0.000000
1 0.0
2 0.0
3 0.0
4 0.0
5 0.003141755198884
6 0.0
7 0.0
8 -0.11202373108451
9 0.0
10 0.0
11 -0.23965061002334
12 0.0
13 0.0
14 0.0
15 0.0
16 0.0
17 0.0
18 0.49993996311370
19 0.0
20 0.0
21 0.0
22 0.76999723534220
23 0.0
24 0.0
25 0.0
26 0.0
27 0.76999723534220
28 0.0
29 0.0
 Sym=     12.1
 Ene=       1.8354
 Spin= Alpha
 Occup=   -0.000000
1 -0.027175954796111
2 -0.20554910705673
3 -0.55208962385689
4 0.66047802510556
5 0.0
6 0.0
7 0.042685405136705
8 0.0
9 0.0
10 0.18186630100965
11 0.0
12 0.0
13 -0.53055217476610
14 -0.054815142757366
15 -0.57217988305113
16 0.62699502580850
17 0.0
18 0.0
19 0.0
20 -0.22608981258755
21 0.070186148192923
22 0.0
23 -0.41170631576696
24 0.66669755216455
25 -0.22608981258755
26 0.070186148192923
27 0.0
28 0.41170631576696
29 0.66669755216455
 Sym=     13.1
 Ene=       2.3183
 Spin= Alpha
 Occup=   -0.000000
1 0.017690638130916
2 0.057872131615691
3 -0.35642162817771
4 -1.19978506901176
5 0.0
6 0.0
7 0.17954184129929
8 0.0
9 0.0
10 1.35229266744212
11 0.0
12 0.0
13 -0.21041715382244
14 0.61762761158379
15 -0.25854304601776
16 -0.35908456556603
17 0.0
18 0.0
19 0.0
20 0.95074623520152
21 0.024478024726911
22 0.0
23 0.86303060724647
24 0.57077353895089
25 0.95074623520152
26 0.024478024726911
27 0.0
28 -0.86303060724647
29 0.57077353895089
 Sym=      8.3
 Ene=       2.4076
 Spin= Alpha
 Occup=   -0.000000
1 0.0
2 0.0
3 0.0
4 0.0
5 0.0
6 0.20901561859435
7 0.0
8 0.0
9 1.56120235053815
10 0.0
11 0.0
12 -0.25169563504926
13 0.0
14 0.0
15 0.0
16 0.0
17 0.0
18 0.0
19 -1.17020394827120
20 1.12871373033917
21 -0.058244783386322
22 0.0
23 0.72721517191793
24 0.83899082641321
25 -1.12871373033917
26 0.058244783386322
27 0.0
28 0.72721517191793
29 -0.83899082641321
